# vtk DataFile Version 3.0
Generated by GMDS VTK Writer

ASCII
DATASET UNSTRUCTURED_GRID
POINTS 60 float
-2.8 -7.31776700000099 -3.37500000000697
2.8 -7.31776700000099 -3.37500000000697
-2.8 0.05 -3.375
2.8 0.0500000000121 -3.375
-2.8 -7.31776700003001 -0.875000000006966
2.8 -7.31776700003001 -0.875000000006966
-2.8 -1.71776700001 -0.875
2.8 -1.717767 -0.875
-2.8 -7.3177670000097 -2.62500000000697
-2.8 0.05 -2.64276700001
2.8 0.0500000000121 -2.64276700001
2.8 -7.3177670000097 -2.62500000000697
-1.69999998902 2.81044004831356 2.13845554795571
1.69999998902 2.81044004831356 2.13845554795571
-1.69999998902 0.645376538857681 3.38845554796087
1.69999998902 0.645376538857681 3.38845554796087
-1.66096715682615 0.281245455971819 3.55776201178856
1.69999998901798 0.298966377340992 3.5884555479569
-1.70718781705717 3.16019645424346 1.94425141329789
1.69999998901798 3.15685020982889 1.93845554795733
-1.55099414766533 2.195840786424 6.87393840006587
1.50011707066884 2.21543761724333 6.90788110671228
-1.46092339626642 5.08772510644633 5.28282897195802
1.60463074295926 5.03190071825105 5.18613829530235
-2.5 4.07336535391257 3.52590634341656
-2.5 1.21548152142467 5.17590634341613
2.44948974278 1.46548152142588 5.60891904531046
2.4991919657492 4.10514395651963 3.58094849772552
-0.729727963031397 1.92743211838549 6.40904094983127
0.684638443921707 1.93854228956554 6.42828433079491
-0.68081334968717 4.79732894649193 4.7798480685886
0.783760604011984 4.7708104918307 4.73391675778116
-1.59987079234283 4.08353205119384 3.5435155796529
-1.5922163849575 1.29429615122811 5.31241728661544
1.52852122937579 1.45192541083549 5.58543917301488
1.59883672400094 4.1038656224735 3.57873435820791
-0.846463325478253 0.536604108303894 4.00005617178003
0.86673855701919 0.54303042521647 4.01118687917815
-0.854593391314832 3.3920427239348 2.34582093194861
0.849000511722742 3.39036960172752 2.34292299927833
-2.5 3.75582270587603 3.70923967678046
-1.59960343365401 3.77363320165652 3.74008836038008
-0.849698606993413 3.07813348520256 2.53503797371438
-1.4710828818865 4.76650504401171 5.45979283674395
-0.686379943480194 4.48192036169566 4.95891188615309
1.59323640865472 4.71909807486467 5.37768155754844
0.772780151491033 4.45991695485063 4.92047018082856
2.49746823616707 3.81206417040308 3.8066527508334
1.59637269496209 3.80966093298922 3.80249022140715
0.847060695962041 3.0773034026539 2.53361228168182
-2.5 1.53302416947888 4.99257301008284
-1.59364978747971 1.60422872492635 5.11590291784821
-0.846868241188484 0.854294875757635 3.81692819613342
-1.54113834637857 2.51726151348203 6.69732209660295
-0.724991478775554 2.22848192490868 6.23802219836482
1.51194726929235 2.52851593926899 6.71681533387598
0.69454069421281 2.23751897041255 6.25020979738439
2.45880495499067 1.75900989541821 5.38399176919513
1.54166377464884 1.74707603582607 5.36332171803577
0.864289113270833 0.859806438276882 3.8264760091031

CELLS 114 654
4 0 2 3 1 
4 4 6 7 5 
4 0 8 9 2 
4 8 4 6 9 
4 3 10 11 1 
4 10 7 5 11 
4 1 11 8 0 
4 11 5 4 8 
4 2 9 10 3 
4 9 6 7 10 
4 8 11 10 9 
4 9 6 14 12 
4 10 7 15 13 
4 12 14 15 13 
4 9 12 13 10 
4 6 14 15 7 
4 31 35 27 23 
4 30 31 23 22 
4 30 32 24 22 
4 28 33 25 20 
4 28 29 21 20 
4 29 34 26 21 
4 38 39 19 18 
4 39 35 27 19 
4 38 32 24 18 
4 36 37 17 16 
4 36 33 25 16 
4 37 34 26 17 
4 18 12 40 24 
4 24 40 41 32 
4 42 38 18 12 
4 32 41 42 38 
4 12 42 41 40 
4 22 43 40 24 
4 44 30 22 43 
4 32 41 44 30 
4 40 41 44 43 
4 45 23 22 43 
4 46 31 23 45 
4 44 30 31 46 
4 45 46 44 43 
4 47 27 23 45 
4 48 35 27 47 
4 46 31 35 48 
4 47 48 46 45 
4 13 19 27 47 
4 49 39 19 13 
4 48 35 39 49 
4 13 49 48 47 
4 13 19 18 12 
4 42 38 39 49 
4 13 49 42 12 
4 12 14 50 40 
4 14 16 25 50 
4 40 50 51 41 
4 50 25 33 51 
4 36 52 14 16 
4 52 42 12 14 
4 41 51 52 42 
4 51 33 36 52 
4 50 14 52 51 
4 43 53 50 40 
4 53 20 25 50 
4 28 54 53 20 
4 54 44 43 53 
4 41 51 54 44 
4 51 33 28 54 
4 53 50 51 54 
4 21 55 53 20 
4 55 45 43 53 
4 29 56 55 21 
4 56 46 45 55 
4 28 54 56 29 
4 54 44 46 56 
4 53 55 56 54 
4 26 57 55 21 
4 57 47 45 55 
4 34 58 57 26 
4 58 48 47 57 
4 29 56 58 34 
4 56 46 48 58 
4 55 57 58 56 
4 17 15 57 26 
4 15 13 47 57 
4 37 59 15 17 
4 59 49 13 15 
4 34 58 59 37 
4 58 48 49 59 
4 57 15 59 58 
4 17 15 14 16 
4 36 52 59 37 
4 52 42 49 59 
4 14 15 59 52 
8 2 0 1 3 9 8 11 10 
8 9 8 11 10 6 4 5 7 
8 9 10 13 12 6 7 15 14 
8 24 18 38 32 40 12 42 41 
8 22 24 32 30 43 40 41 44 
8 43 45 46 44 22 23 31 30 
8 45 47 48 46 23 27 35 31 
8 47 13 49 48 27 19 39 35 
8 18 19 39 38 12 13 49 42 
8 51 50 14 52 33 25 16 36 
8 41 40 12 42 51 50 14 52 
8 54 53 50 51 28 20 25 33 
8 44 43 40 41 54 53 50 51 
8 28 20 21 29 54 53 55 56 
8 54 53 55 56 44 43 45 46 
8 56 55 57 58 46 45 47 48 
8 29 21 26 34 56 55 57 58 
8 58 57 15 59 48 47 13 49 
8 34 26 17 37 58 57 15 59 
8 52 14 15 59 36 16 17 37 
8 42 12 13 49 52 14 15 59 

CELL_TYPES 114
9 
9 
9 
9 
9 
9 
9 
9 
9 
9 
9 
9 
9 
9 
9 
9 
9 
9 
9 
9 
9 
9 
9 
9 
9 
9 
9 
9 
9 
9 
9 
9 
9 
9 
9 
9 
9 
9 
9 
9 
9 
9 
9 
9 
9 
9 
9 
9 
9 
9 
9 
9 
9 
9 
9 
9 
9 
9 
9 
9 
9 
9 
9 
9 
9 
9 
9 
9 
9 
9 
9 
9 
9 
9 
9 
9 
9 
9 
9 
9 
9 
9 
9 
9 
9 
9 
9 
9 
9 
9 
9 
9 
9 
12 
12 
12 
12 
12 
12 
12 
12 
12 
12 
12 
12 
12 
12 
12 
12 
12 
12 
12 
12 
12 
POINT_DATA 60
SCALARS GMDS_ID int 1
LOOKUP_TABLE default
0 1 2 3 4 5 6 7 8 9 10 11 12 13 14 15 16 17 18 19 20 21 22 23 24 25 26 27 28 29 30 31 32 33 34 35 36 37 38 39 40 41 42 43 44 45 46 47 48 49 50 51 52 53 54 55 56 57 58 59 


CELL_DATA 114
SCALARS GMDS_ID int 1
LOOKUP_TABLE default
0 1 2 3 4 5 6 7 8 9 10 11 12 13 14 15 16 17 18 19 20 21 22 23 24 25 26 27 28 29 30 31 32 33 34 35 36 37 38 39 40 41 42 43 44 45 46 47 48 49 50 51 52 53 54 55 56 57 58 59 60 61 62 63 64 65 66 67 68 69 70 71 72 73 74 75 76 77 78 79 80 81 82 83 84 85 86 87 88 89 90 91 92 0 1 2 3 4 5 6 7 8 9 10 11 12 13 14 15 16 17 18 19 20 

