# vtk DataFile Version 3.0
Generated by GMDS VTK Writer

ASCII
DATASET UNSTRUCTURED_GRID
POINTS 100 float
0 0 -3
4 4.898587e-16 -3
0 7.5 -3
0 4.898587e-16 3
4 4.898587e-16 3
0 6 3
0 2.25 -3
0 2.25000003 3
4 2 3
4 2 -3
4 4.898587e-16 2
0 9.741641e-18 2
0 2.250000024 1.800000024
4 2 1.8
5.551115e-17 7.5 1.5
2 6 3
2 2 3
2 2 1.800000012
2 7.5 1.5
2 4.898587e-16 3
2 9.741641e-18 2
2 0 -3
2 2 -3
2 7.5 -3
4 4.898587e-16 -2
4 2 -1.8
2 4.898587e-16 -2
2 2 -1.799999997
0 2.250000006 -1.799999994
0 4.898587e-16 -2
0 7.5 -1.875
2 7.5 -1.875
4 0.666666666666667 3
4 1 2
2 0.666666666666667 3
2 1 2
0 1 2
0 0.75000001 3
4 1 -2
2 1 -2
2 0.666666666666667 -3
4 0.666666666666667 -3
0 0.75 -3
0 1 -2
2 5.85 -3
0 5.925 -3
0 5.9250000018 -1.8524999982
2 5.85 -1.8524999991
2 5.85 1.5900000036
0 5.9250000072 1.5900000072
0 4.875000009 3
2 4.8 3
0 3.30800990220788 0.721906991625409
2 3.23272672168751 0.641320291576369
2 3.25637182470008 -0.668593401777274
0 3.33470523028837 -0.746580785578055
0 4.72387592082338 -0.689930178534106
2 4.67919340205333 -0.733959346699271
2 4.75863401021488 0.651517028591959
0 4.79713908579323 0.603795725308433
4 2 0.54
2 2 0.54000000885
4 1 0.6
2 1 0.6
0 2.2500000177 0.540000017700001
0 1 0.6
2 3.01920420494406 0.195037453840525
0 3.02622649308177 0.227519575474671
4 2 -0.54
2 2 -0.53999999385
4 1 -0.6
2 1 -0.6
0 2.2500000123 -0.5399999877
0 1 -0.6
2 3.02674205475553 -0.229714979961081
0 3.03509699662206 -0.262606538517655
2.6 2 3
2.6 2 1.8000000084
2.6 0.666666666666667 3
2.6 1 2
2.6 9.741641e-18 2
2.6 4.898587e-16 3
2.6 2 0.540000006195
2.6 1 0.6
2.6 2 -0.539999995695
2.6 1 -0.6
2.6 1 -2
2.6 2 -1.7999999979
2.6 2 -3
2.6 0.666666666666667 -3
2.6 0 -3
2.6 4.898587e-16 -2
3.4157697345629 2 0.111894571373888
3.41 1 0.12
3.41576973506736 2 -0.111894570626537
3.41 1 -0.12
3.10134117183717 2 0.13379294753183
3.10857864376269 1 0.141421356237309
3.10134116989681 2 -0.133792945375866
3.10857864376269 1 -0.141421356237309

CELLS 191 1095
4 7 16 17 12 
4 18 14 5 15 
4 20 11 3 19 
4 29 0 21 26 
4 22 27 28 6 
4 14 30 31 18 
4 30 2 23 31 
4 8 32 33 13 
4 32 4 10 33 
4 17 35 34 16 
4 35 20 19 34 
4 11 36 37 3 
4 36 12 7 37 
4 3 37 34 19 
4 37 7 16 34 
4 17 35 36 12 
4 35 20 11 36 
4 36 37 34 35 
4 1 41 38 24 
4 41 9 25 38 
4 27 39 40 22 
4 39 26 21 40 
4 21 40 42 0 
4 40 22 6 42 
4 6 42 43 28 
4 42 0 29 43 
4 28 43 39 27 
4 43 29 26 39 
4 40 42 43 39 
4 23 44 45 2 
4 44 22 6 45 
4 6 45 46 28 
4 45 2 30 46 
4 31 47 44 23 
4 47 27 22 44 
4 30 46 47 31 
4 46 28 27 47 
4 44 45 46 47 
4 17 48 49 12 
4 48 18 14 49 
4 49 14 30 46 
4 31 47 48 18 
4 47 46 49 48 
4 14 49 50 5 
4 49 12 7 50 
4 5 50 51 15 
4 50 7 16 51 
4 15 51 48 18 
4 51 16 17 48 
4 49 50 51 48 
4 52 59 49 12 
4 52 53 17 12 
4 53 58 48 17 
4 58 59 49 48 
4 56 57 47 46 
4 55 56 46 28 
4 54 55 28 27 
4 54 57 47 27 
4 57 58 48 47 
4 56 59 49 46 
4 53 58 59 52 
4 56 55 54 57 
4 57 56 59 58 
4 62 33 13 60 
4 17 61 63 35 
4 64 12 17 61 
4 36 65 64 12 
4 63 35 36 65 
4 61 64 65 63 
4 53 66 61 17 
4 12 64 67 52 
4 67 52 53 66 
4 64 67 66 61 
4 38 70 68 25 
4 70 62 60 68 
4 61 69 71 63 
4 69 27 39 71 
4 28 72 69 27 
4 72 64 61 69 
4 65 73 72 64 
4 73 43 28 72 
4 39 71 73 43 
4 71 63 65 73 
4 71 69 72 73 
4 66 74 69 61 
4 74 54 27 69 
4 64 72 75 67 
4 72 28 55 75 
4 55 75 74 54 
4 75 67 66 74 
4 69 72 75 74 
4 16 76 77 17 
4 76 8 13 77 
4 34 78 76 16 
4 78 32 8 76 
4 13 77 79 33 
4 77 17 35 79 
4 35 79 78 34 
4 79 33 32 78 
4 77 76 78 79 
4 10 80 81 4 
4 80 20 19 81 
4 19 81 78 34 
4 81 4 32 78 
4 33 79 80 10 
4 79 35 20 80 
4 79 78 81 80 
4 60 82 77 13 
4 82 61 17 77 
4 35 79 83 63 
4 79 33 62 83 
4 62 83 82 60 
4 83 63 61 82 
4 79 77 82 83 
4 84 69 61 82 
4 63 83 85 71 
4 70 85 84 68 
4 85 71 69 84 
4 83 82 84 85 
4 39 86 87 27 
4 86 38 25 87 
4 25 87 84 68 
4 87 27 69 84 
4 71 85 86 39 
4 85 70 38 86 
4 85 84 87 86 
4 25 87 88 9 
4 87 27 22 88 
4 22 88 89 40 
4 88 9 41 89 
4 41 89 86 38 
4 89 40 39 86 
4 87 88 89 86 
4 21 90 91 26 
4 90 1 24 91 
4 26 91 86 39 
4 91 24 38 86 
4 40 89 90 21 
4 89 41 1 90 
4 86 89 90 91 
4 95 99 85 70 
4 94 95 70 68 
4 94 98 84 68 
4 98 99 85 84 
4 92 93 62 60 
4 92 96 82 60 
4 96 97 83 82 
4 93 97 83 62 
4 97 99 85 83 
4 93 95 70 62 
4 92 94 68 60 
4 96 98 84 82 
4 95 99 98 94 
4 93 97 96 92 
4 97 96 98 99 
4 95 93 92 94 
8 35 36 37 34 17 12 7 16 
8 20 11 3 19 35 36 37 34 
8 39 40 42 43 27 22 6 28 
8 26 21 0 29 39 40 42 43 
8 47 44 45 46 31 23 2 30 
8 27 22 6 28 47 44 45 46 
8 48 47 46 49 18 31 30 14 
8 48 49 50 51 18 14 5 15 
8 17 12 7 16 48 49 50 51 
8 49 59 58 48 12 52 53 17 
8 47 57 56 46 27 54 55 28 
8 49 59 56 46 48 58 57 47 
8 63 61 64 65 35 17 12 36 
8 17 12 52 53 61 64 67 66 
8 73 71 69 72 65 63 61 64 
8 43 39 27 28 73 71 69 72 
8 74 69 72 75 54 27 28 55 
8 66 61 64 67 74 69 72 75 
8 79 77 76 78 33 13 8 32 
8 35 17 16 34 79 77 76 78 
8 80 79 78 81 10 33 32 4 
8 20 35 34 19 80 79 78 81 
8 62 33 13 60 83 79 77 82 
8 83 79 77 82 63 35 17 61 
8 85 83 82 84 71 63 61 69 
8 86 85 84 87 39 71 69 27 
8 38 70 68 25 86 85 84 87 
8 38 25 9 41 86 87 88 89 
8 86 87 88 89 39 27 22 40 
8 24 38 41 1 91 86 89 90 
8 91 86 89 90 26 39 40 21 
8 84 98 99 85 68 94 95 70 
8 60 92 93 62 82 96 97 83 
8 84 98 96 82 85 99 97 83 
8 68 94 95 70 60 92 93 62 

CELL_TYPES 191
9 
9 
9 
9 
9 
9 
9 
9 
9 
9 
9 
9 
9 
9 
9 
9 
9 
9 
9 
9 
9 
9 
9 
9 
9 
9 
9 
9 
9 
9 
9 
9 
9 
9 
9 
9 
9 
9 
9 
9 
9 
9 
9 
9 
9 
9 
9 
9 
9 
9 
9 
9 
9 
9 
9 
9 
9 
9 
9 
9 
9 
9 
9 
9 
9 
9 
9 
9 
9 
9 
9 
9 
9 
9 
9 
9 
9 
9 
9 
9 
9 
9 
9 
9 
9 
9 
9 
9 
9 
9 
9 
9 
9 
9 
9 
9 
9 
9 
9 
9 
9 
9 
9 
9 
9 
9 
9 
9 
9 
9 
9 
9 
9 
9 
9 
9 
9 
9 
9 
9 
9 
9 
9 
9 
9 
9 
9 
9 
9 
9 
9 
9 
9 
9 
9 
9 
9 
9 
9 
9 
9 
9 
9 
9 
9 
9 
9 
9 
9 
9 
9 
9 
9 
9 
9 
9 
12 
12 
12 
12 
12 
12 
12 
12 
12 
12 
12 
12 
12 
12 
12 
12 
12 
12 
12 
12 
12 
12 
12 
12 
12 
12 
12 
12 
12 
12 
12 
12 
12 
12 
12 
POINT_DATA 100
SCALARS GMDS_ID int 1
LOOKUP_TABLE default
0 1 2 3 4 5 6 7 8 9 10 11 12 13 14 15 16 17 18 19 20 21 22 23 24 25 26 27 28 29 30 31 32 33 34 35 36 37 38 39 40 41 42 43 44 45 46 47 48 49 50 51 52 53 54 55 56 57 58 59 60 61 62 63 64 65 66 67 68 69 70 71 72 73 74 75 76 77 78 79 80 81 82 83 84 85 86 87 88 89 90 91 92 93 94 95 96 97 98 99 


CELL_DATA 191
SCALARS GMDS_ID int 1
LOOKUP_TABLE default
0 1 2 3 4 5 6 7 8 9 10 11 12 13 14 15 16 17 18 19 20 21 22 23 24 25 26 27 28 29 30 31 32 33 34 35 36 37 38 39 40 41 42 43 44 45 46 47 48 49 50 51 52 53 54 55 56 57 58 59 60 61 62 63 64 65 66 67 68 69 70 71 72 73 74 75 76 77 78 79 80 81 82 83 84 85 86 87 88 89 90 91 92 93 94 95 96 97 98 99 100 101 102 103 104 105 106 107 108 109 110 111 112 113 114 115 116 117 118 119 120 121 122 123 124 125 126 127 128 129 130 131 132 133 134 135 136 137 138 139 140 141 142 143 144 145 146 147 148 149 150 151 152 153 154 155 0 1 2 3 4 5 6 7 8 9 10 11 12 13 14 15 16 17 18 19 20 21 22 23 24 25 26 27 28 29 30 31 32 33 34 

