# vtk DataFile Version 3.0
Generated by GMDS VTK Writer

ASCII
DATASET UNSTRUCTURED_GRID
POINTS 132 float
0 0 0
0.5 0 0
0.5 2 0
0 2 0
4 0 0
4 1 0
4.5 0 0
4.5 1 0
4.5 1.5 0
4 1.5 0
5.5 1.5 0
4 2 0
5.5 2 0
0.5 1 0
0 1 0
4 0.5 0
4.5 0.5 0
4.5 0.707106781186548 0.707106781186547
4 0.707106781186548 0.707106781186547
4.5 1.06066017177982 1.06066017177982
4 1.06066017177982 1.06066017177982
4 1.4142135623731 1.41421356237309
4.5 1.4142135623731 1.41421356237309
5.5 1.06066017177982 1.06066017177982
5.5 1.4142135623731 1.41421356237309
0.5 1 1
0 1 1
0.5 1.4142135623731 1.41421356237309
0 1.4142135623731 1.41421356237309
4 0.5 0.5
4.5 0.5 0.5
4.5 1.11022302462516e-16 1
4 1.11022302462516e-16 1
4.5 1.66533453693773e-16 1.5
4 1.66533453693773e-16 1.5
4 2.22044604925031e-16 2
4.5 2.22044604925031e-16 2
0.5 1.11022302462516e-16 1
0 1.11022302462516e-16 1
0.5 2.22044604925031e-16 2
0 2.22044604925031e-16 2
4 5.55111512312578e-17 0.5
4.5 5.55111512312578e-17 0.5
5 1.4142135623731 1.41421356237309
5 1.06066017177982 1.06066017177982
5 3.18313849250323e-16 1.5
5 4.24418465667097e-16 2
4.5 -0.707106781186547 0.707106781186548
4.5 -1.06066017177982 1.06066017177982
4 -0.707106781186547 0.707106781186548
4 -1.06066017177982 1.06066017177982
4 -1.41421356237309 1.4142135623731
4.5 -1.41421356237309 1.4142135623731
0.5 -1 1
0.5 -1.41421356237309 1.4142135623731
0 -1 1
0 -1.41421356237309 1.4142135623731
4 -0.5 0.5
4.5 -0.5 0.5
4.5 -1 2.22044604925031e-16
4.5 -1.5 3.33066907387547e-16
4 -1 2.22044604925031e-16
4 -1.5 3.33066907387547e-16
4 -2 4.44089209850063e-16
4.5 -2 4.44089209850063e-16
0.5 -1 2.22044604925031e-16
0.5 -2 4.44089209850063e-16
0 -1 2.22044604925031e-16
0 -2 4.44089209850063e-16
4 -0.5 1.11022302462516e-16
4.5 -0.5 1.11022302462516e-16
5 -1.41421356237309 1.4142135623731
5 -1.06066017177982 1.06066017177982
5.5 2.22044604925031e-16 2
5.5 1.66533453693773e-16 1.5
5.5 -1.41421356237309 1.4142135623731
5.5 -1.06066017177982 1.06066017177982
5 -2 6.46463070592128e-16
5 -1.5 4.84847302944096e-16
4.5 -0.707106781186548 -0.707106781186547
4.5 -1.06066017177982 -1.06066017177982
4 -0.707106781186548 -0.707106781186547
4 -1.06066017177982 -1.06066017177982
4 -1.4142135623731 -1.41421356237309
4.5 -1.4142135623731 -1.41421356237309
0.5 -1 -1
0.5 -1.4142135623731 -1.41421356237309
0 -1 -1
0 -1.4142135623731 -1.41421356237309
4 -0.5 -0.5
4.5 -0.5 -0.5
4.5 -2.33486982377251e-16 -1
4.5 -3.50230473565876e-16 -1.5
4 -2.33486982377251e-16 -1
4 -3.50230473565876e-16 -1.5
4 -4.66973964754502e-16 -2
4.5 -4.66973964754502e-16 -2
0.5 -2.33486982377251e-16 -1
0.5 -4.66973964754502e-16 -2
0 -2.33486982377251e-16 -1
0 -4.66973964754502e-16 -2
4 -1.16743491188625e-16 -0.5
4.5 -1.16743491188625e-16 -0.5
5 -1.4142135623731 -1.41421356237309
5 -1.06066017177982 -1.06066017177982
5.5 -2 2.44929359829471e-16
5.5 -1.5 1.83697019872103e-16
5.5 -1.4142135623731 -1.41421356237309
5.5 -1.06066017177982 -1.06066017177982
5 -6.69347825496568e-16 -2
5 -5.02010869122426e-16 -1.5
4.5 0.707106781186547 -0.707106781186548
4.5 1.06066017177982 -1.06066017177982
4 0.707106781186547 -0.707106781186548
4 1.06066017177982 -1.06066017177982
4 1.41421356237309 -1.4142135623731
4.5 1.41421356237309 -1.4142135623731
0.5 1 -1
0.5 1.41421356237309 -1.4142135623731
0 1 -1
0 1.41421356237309 -1.4142135623731
4 0.5 -0.5
4.5 0.5 -0.5
4.5 2 -6.66133814775094e-16
5 1.41421356237309 -1.4142135623731
5 1.06066017177982 -1.06066017177982
5.5 -4.44089209850063e-16 -2
5.5 -3.33066907387547e-16 -1.5
5.5 1.41421356237309 -1.4142135623731
5.5 1.06066017177982 -1.06066017177982
5 2 -8.6850767551716e-16
5 1.5 -6.5138075663787e-16

CELLS 312 1816
4 7 8 9 5 
4 1 13 14 0 
4 13 2 3 14 
4 4 15 13 1 
4 15 5 2 13 
4 6 16 15 4 
4 16 7 5 15 
4 17 19 20 18 
4 20 19 22 21 
4 25 27 28 26 
4 29 18 27 25 
4 30 17 18 29 
4 31 33 34 32 
4 34 33 36 35 
4 1 37 38 0 
4 37 39 40 38 
4 4 41 37 1 
4 41 32 39 37 
4 6 42 41 4 
4 42 31 32 41 
4 7 5 18 17 
4 7 8 19 17 
4 8 9 20 19 
4 9 5 18 20 
4 9 11 21 20 
4 8 123 22 19 
4 11 123 22 21 
4 10 12 24 23 
4 13 14 26 25 
4 13 2 27 25 
4 2 3 28 27 
4 3 14 26 28 
4 15 13 25 29 
4 15 5 18 29 
4 5 2 27 18 
4 16 15 29 30 
4 16 7 17 30 
4 17 18 32 31 
4 17 19 33 31 
4 19 20 34 33 
4 20 18 32 34 
4 20 21 35 34 
4 19 22 36 33 
4 21 22 36 35 
4 25 26 38 37 
4 25 27 39 37 
4 27 28 40 39 
4 28 26 38 40 
4 29 25 37 41 
4 29 18 32 41 
4 18 27 39 32 
4 30 29 41 42 
4 30 17 31 42 
4 13 25 37 1 
4 14 26 38 0 
4 15 29 41 4 
4 16 30 42 6 
4 131 10 12 130 
4 22 43 44 19 
4 43 24 23 44 
4 23 44 131 10 
4 44 19 8 131 
4 123 130 43 22 
4 130 12 24 43 
4 131 44 43 130 
4 33 45 46 36 
4 44 19 33 45 
4 36 46 43 22 
4 44 45 46 43 
4 47 48 50 49 
4 31 32 49 47 
4 33 34 50 48 
4 31 33 48 47 
4 34 32 49 50 
4 50 48 52 51 
4 34 35 51 50 
4 33 36 52 48 
4 35 36 52 51 
4 53 54 56 55 
4 37 38 55 53 
4 39 40 56 54 
4 37 39 54 53 
4 40 38 55 56 
4 57 49 54 53 
4 41 37 53 57 
4 32 39 54 49 
4 41 32 49 57 
4 58 47 49 57 
4 42 41 57 58 
4 42 31 47 58 
4 59 60 62 61 
4 47 49 61 59 
4 48 50 62 60 
4 47 48 60 59 
4 50 49 61 62 
4 62 60 64 63 
4 50 51 63 62 
4 48 52 64 60 
4 51 52 64 63 
4 65 66 68 67 
4 53 55 67 65 
4 54 56 68 66 
4 53 54 66 65 
4 56 55 67 68 
4 69 61 66 65 
4 57 53 65 69 
4 49 54 66 61 
4 57 49 61 69 
4 70 59 61 69 
4 58 57 69 70 
4 58 47 59 70 
4 1 65 67 0 
4 37 53 65 1 
4 38 55 67 0 
4 4 69 65 1 
4 41 57 69 4 
4 6 70 69 4 
4 42 58 70 6 
4 36 46 71 52 
4 72 48 33 45 
4 52 71 72 48 
4 45 72 71 46 
4 46 73 75 71 
4 76 72 45 74 
4 45 74 73 46 
4 71 75 76 72 
4 74 73 75 76 
4 64 77 71 52 
4 72 48 60 78 
4 60 78 77 64 
4 72 78 77 71 
4 79 80 82 81 
4 59 61 81 79 
4 60 62 82 80 
4 59 60 80 79 
4 62 61 81 82 
4 82 80 84 83 
4 62 63 83 82 
4 60 64 84 80 
4 63 64 84 83 
4 85 86 88 87 
4 65 67 87 85 
4 66 68 88 86 
4 65 66 86 85 
4 68 67 87 88 
4 89 81 86 85 
4 69 65 85 89 
4 61 66 86 81 
4 69 61 81 89 
4 90 79 81 89 
4 70 69 89 90 
4 70 59 79 90 
4 91 92 94 93 
4 79 81 93 91 
4 80 82 94 92 
4 79 80 92 91 
4 82 81 93 94 
4 94 92 96 95 
4 82 83 95 94 
4 80 84 96 92 
4 83 84 96 95 
4 97 98 100 99 
4 85 87 99 97 
4 86 88 100 98 
4 85 86 98 97 
4 88 87 99 100 
4 101 93 98 97 
4 89 85 97 101 
4 81 86 98 93 
4 89 81 93 101 
4 102 91 93 101 
4 90 89 101 102 
4 90 79 91 102 
4 1 97 99 0 
4 65 85 97 1 
4 67 87 99 0 
4 4 101 97 1 
4 69 89 101 4 
4 6 102 101 4 
4 70 90 102 6 
4 64 77 103 84 
4 104 80 60 78 
4 84 103 104 80 
4 78 104 103 77 
4 77 105 107 103 
4 108 104 78 106 
4 78 106 105 77 
4 103 107 108 104 
4 106 105 107 108 
4 96 109 103 84 
4 104 80 92 110 
4 92 110 109 96 
4 104 110 109 103 
4 111 112 114 113 
4 91 93 113 111 
4 92 94 114 112 
4 91 92 112 111 
4 94 93 113 114 
4 114 112 116 115 
4 94 95 115 114 
4 92 96 116 112 
4 95 96 116 115 
4 117 118 120 119 
4 97 99 119 117 
4 98 100 120 118 
4 97 98 118 117 
4 100 99 119 120 
4 121 113 118 117 
4 101 97 117 121 
4 93 98 118 113 
4 101 93 113 121 
4 122 111 113 121 
4 102 101 121 122 
4 102 91 111 122 
4 111 113 5 7 
4 112 114 9 8 
4 111 112 8 7 
4 114 113 5 9 
4 9 8 123 11 
4 114 115 11 9 
4 112 116 123 8 
4 115 116 123 11 
4 117 119 14 13 
4 118 120 3 2 
4 117 118 2 13 
4 120 119 14 3 
4 121 117 13 15 
4 113 118 2 5 
4 121 113 5 15 
4 122 121 15 16 
4 122 111 7 16 
4 97 117 13 1 
4 99 119 14 0 
4 101 121 15 4 
4 102 122 16 6 
4 96 109 124 116 
4 125 112 92 110 
4 116 124 125 112 
4 110 125 124 109 
4 109 126 128 124 
4 129 125 110 127 
4 110 127 126 109 
4 124 128 129 125 
4 127 126 128 129 
4 123 130 124 116 
4 125 112 8 131 
4 8 131 130 123 
4 125 131 130 124 
8 7 17 19 8 5 18 20 9 
8 9 20 19 8 11 21 22 123 
8 13 25 27 2 14 26 28 3 
8 15 29 18 5 13 25 27 2 
8 16 30 17 7 15 29 18 5 
8 17 31 33 19 18 32 34 20 
8 20 34 33 19 21 35 36 22 
8 25 37 39 27 26 38 40 28 
8 29 41 32 18 25 37 39 27 
8 30 42 31 17 29 41 32 18 
8 1 37 25 13 0 38 26 14 
8 4 41 29 15 1 37 25 13 
8 6 42 30 16 4 41 29 15 
8 130 131 44 43 123 8 19 22 
8 12 10 23 24 130 131 44 43 
8 43 44 45 46 22 19 33 36 
8 31 47 48 33 32 49 50 34 
8 34 50 48 33 35 51 52 36 
8 37 53 54 39 38 55 56 40 
8 41 57 49 32 37 53 54 39 
8 42 58 47 31 41 57 49 32 
8 47 59 60 48 49 61 62 50 
8 50 62 60 48 51 63 64 52 
8 53 65 66 54 55 67 68 56 
8 57 69 61 49 53 65 66 54 
8 58 70 59 47 57 69 61 49 
8 1 65 53 37 0 67 55 38 
8 4 69 57 41 1 65 53 37 
8 6 70 58 42 4 69 57 41 
8 46 45 72 71 36 33 48 52 
8 73 74 76 75 46 45 72 71 
8 71 72 78 77 52 48 60 64 
8 59 79 80 60 61 81 82 62 
8 62 82 80 60 63 83 84 64 
8 65 85 86 66 67 87 88 68 
8 69 89 81 61 65 85 86 66 
8 70 90 79 59 69 89 81 61 
8 79 91 92 80 81 93 94 82 
8 82 94 92 80 83 95 96 84 
8 85 97 98 86 87 99 100 88 
8 89 101 93 81 85 97 98 86 
8 90 102 91 79 89 101 93 81 
8 1 97 85 65 0 99 87 67 
8 4 101 89 69 1 97 85 65 
8 6 102 90 70 4 101 89 69 
8 77 78 104 103 64 60 80 84 
8 105 106 108 107 77 78 104 103 
8 103 104 110 109 84 80 92 96 
8 91 111 112 92 93 113 114 94 
8 94 114 112 92 95 115 116 96 
8 97 117 118 98 99 119 120 100 
8 101 121 113 93 97 117 118 98 
8 102 122 111 91 101 121 113 93 
8 111 7 8 112 113 5 9 114 
8 114 9 8 112 115 11 123 116 
8 117 13 2 118 119 14 3 120 
8 121 15 5 113 117 13 2 118 
8 122 16 7 111 121 15 5 113 
8 1 13 117 97 0 14 119 99 
8 4 15 121 101 1 13 117 97 
8 6 16 122 102 4 15 121 101 
8 109 110 125 124 96 92 112 116 
8 126 127 129 128 109 110 125 124 
8 124 125 131 130 116 112 8 123 

CELL_TYPES 312
9 
9 
9 
9 
9 
9 
9 
9 
9 
9 
9 
9 
9 
9 
9 
9 
9 
9 
9 
9 
9 
9 
9 
9 
9 
9 
9 
9 
9 
9 
9 
9 
9 
9 
9 
9 
9 
9 
9 
9 
9 
9 
9 
9 
9 
9 
9 
9 
9 
9 
9 
9 
9 
9 
9 
9 
9 
9 
9 
9 
9 
9 
9 
9 
9 
9 
9 
9 
9 
9 
9 
9 
9 
9 
9 
9 
9 
9 
9 
9 
9 
9 
9 
9 
9 
9 
9 
9 
9 
9 
9 
9 
9 
9 
9 
9 
9 
9 
9 
9 
9 
9 
9 
9 
9 
9 
9 
9 
9 
9 
9 
9 
9 
9 
9 
9 
9 
9 
9 
9 
9 
9 
9 
9 
9 
9 
9 
9 
9 
9 
9 
9 
9 
9 
9 
9 
9 
9 
9 
9 
9 
9 
9 
9 
9 
9 
9 
9 
9 
9 
9 
9 
9 
9 
9 
9 
9 
9 
9 
9 
9 
9 
9 
9 
9 
9 
9 
9 
9 
9 
9 
9 
9 
9 
9 
9 
9 
9 
9 
9 
9 
9 
9 
9 
9 
9 
9 
9 
9 
9 
9 
9 
9 
9 
9 
9 
9 
9 
9 
9 
9 
9 
9 
9 
9 
9 
9 
9 
9 
9 
9 
9 
9 
9 
9 
9 
9 
9 
9 
9 
9 
9 
9 
9 
9 
9 
9 
9 
9 
9 
9 
9 
9 
9 
9 
9 
9 
9 
9 
9 
9 
9 
9 
9 
9 
9 
9 
9 
12 
12 
12 
12 
12 
12 
12 
12 
12 
12 
12 
12 
12 
12 
12 
12 
12 
12 
12 
12 
12 
12 
12 
12 
12 
12 
12 
12 
12 
12 
12 
12 
12 
12 
12 
12 
12 
12 
12 
12 
12 
12 
12 
12 
12 
12 
12 
12 
12 
12 
12 
12 
12 
12 
12 
12 
12 
12 
12 
12 
12 
12 
12 
12 
POINT_DATA 132
SCALARS GMDS_ID int 1
LOOKUP_TABLE default
0 1 2 3 4 5 6 7 8 9 10 11 12 13 14 15 16 17 18 19 20 21 22 23 24 25 26 27 28 29 30 31 32 33 34 35 36 37 38 39 40 41 42 43 44 45 46 47 48 49 50 51 52 53 54 55 56 57 58 59 60 61 62 63 64 65 66 67 68 69 70 71 72 73 74 75 76 77 78 79 80 81 82 83 84 85 86 87 88 89 90 91 92 93 94 95 96 97 98 99 100 101 102 103 104 105 106 107 108 109 110 111 112 113 114 115 116 117 118 119 120 121 122 123 124 125 126 127 128 129 130 131 


CELL_DATA 312
SCALARS GMDS_ID int 1
LOOKUP_TABLE default
0 1 2 3 4 5 6 7 8 9 10 11 12 13 14 15 16 17 18 19 20 21 22 23 24 25 26 27 28 29 30 31 32 33 34 35 36 37 38 39 40 41 42 43 44 45 46 47 48 49 50 51 52 53 54 55 56 57 58 59 60 61 62 63 64 65 66 67 68 69 70 71 72 73 74 75 76 77 78 79 80 81 82 83 84 85 86 87 88 89 90 91 92 93 94 95 96 97 98 99 100 101 102 103 104 105 106 107 108 109 110 111 112 113 114 115 116 117 118 119 120 121 122 123 124 125 126 127 128 129 130 131 132 133 134 135 136 137 138 139 140 141 142 143 144 145 146 147 148 149 150 151 152 153 154 155 156 157 158 159 160 161 162 163 164 165 166 167 168 169 170 171 172 173 174 175 176 177 178 179 180 181 182 183 184 185 186 187 188 189 190 191 192 193 194 195 196 197 198 199 200 201 202 203 204 205 206 207 208 209 210 211 212 213 214 215 216 217 218 219 220 221 222 223 224 225 226 227 228 229 230 231 232 233 234 235 236 237 238 239 240 241 242 243 244 245 246 247 0 1 2 3 4 5 6 7 8 9 10 11 12 13 14 15 16 17 18 19 20 21 22 23 24 25 26 27 28 29 30 31 32 33 34 35 36 37 38 39 40 41 42 43 44 45 46 47 48 49 50 51 52 53 54 55 56 57 58 59 60 61 62 63 

